LAMMPS data file. CGCMM style. atom_style full generated by VMD/TopoTools v1.5 on Fri Apr 10 09:47:30 EDT 2015
 1900 atoms
 1080 bonds
 1080 angles
 0 dihedrals
 0 impropers
 9 atom types
 9 bond types
 12 angle types
 0 dihedral types
 0 improper types
 -7.157554 54.419846  xlo xhi
 -3.430802 55.589744  ylo yhi
 -0.838997 68.119003  zlo zhi

# Pair Coeffs
#
# 1  CM
# 2  CMD2
# 3  CT2
# 4  EST1
# 5  EST2
# 6  GL
# 7  NC
# 8  PH
# 9  W

# Bond Coeffs
#
# 1  CM-CM
# 2  CM-CMD2
# 3  CM-CT2
# 4  CM-EST1
# 5  CM-EST2
# 6  EST1-GL
# 7  EST2-GL
# 8  GL-PH
# 9  NC-PH

# Angle Coeffs
#
# 1  CM-CM-CM
# 2  CM-CM-CMD2
# 3  CM-CM-CT2
# 4  CM-CM-EST1
# 5  CM-CM-EST2
# 6  CM-CMD2-CM
# 7  CM-EST1-GL
# 8  CM-EST2-GL
# 9  EST1-GL-EST2
# 10  EST1-GL-PH
# 11  EST2-GL-PH
# 12  GL-PH-NC

 Masses

 1 42.080399 # CM
 2 26.037800 # CMD2
 3 29.061501 # CT2
 4 58.035801 # EST1
 5 58.035801 # EST2
 6 41.072498 # GL
 7 87.164703 # NC
 8 94.971603 # PH
 9 54.046001 # W

 Atoms

1 1 7 0.111803 18.792542 34.178951 55.519627 # NC POPC
2 1 8 -0.111803 22.586248 34.454842 54.739853 # PH POPC
3 1 6 0.000000 24.193546 35.642376 51.780430 # GL POPC
4 1 4 0.000000 21.879364 34.903370 50.259586 # EST1 POPC
5 1 1 0.000000 18.998640 33.628105 48.140099 # CM POPC
6 1 1 0.000000 17.009008 35.917099 47.245716 # CM POPC
7 1 2 0.000000 15.441116 37.018494 45.366920 # CMD2 POPC
8 1 1 0.000000 17.067539 36.782242 43.017918 # CM POPC
9 1 1 0.000000 17.539429 34.907917 39.699593 # CM POPC
10 1 3 0.000000 18.297653 34.289047 36.603573 # CT2 POPC
11 1 5 0.000000 26.340263 36.714813 49.628605 # EST2 POPC
12 1 1 0.000000 29.445618 36.160652 47.519836 # CM POPC
13 1 1 0.000000 31.011974 34.891289 44.593830 # CM POPC
14 1 1 0.000000 30.448339 32.877331 41.351776 # CM POPC
15 1 1 0.000000 29.809986 30.785379 38.601067 # CM POPC
16 1 3 0.000000 27.237617 29.024727 37.562054 # CT2 POPC
17 2 7 0.111803 11.436860 28.119066 55.128078 # NC POPC
18 2 8 -0.111803 13.354878 26.384218 52.186386 # PH POPC
19 2 6 0.000000 15.094225 29.109726 50.249866 # GL POPC
20 2 4 0.000000 13.449391 28.085054 48.077335 # EST1 POPC
21 2 1 0.000000 15.409643 27.219072 44.934475 # CM POPC
22 2 1 0.000000 16.664789 28.995386 42.131439 # CM POPC
23 2 2 0.000000 18.186726 29.904125 39.601318 # CMD2 POPC
24 2 1 0.000000 17.116573 29.269005 37.076118 # CM POPC
25 2 1 0.000000 16.545753 31.382425 33.886505 # CM POPC
26 2 3 0.000000 15.948791 33.428253 31.433670 # CT2 POPC
27 2 5 0.000000 14.602269 32.292072 50.218338 # EST2 POPC
28 2 1 0.000000 13.136598 35.533821 49.835571 # CM POPC
29 2 1 0.000000 11.335607 37.091549 47.254044 # CM POPC
30 2 1 0.000000 11.939379 38.065834 43.605061 # CM POPC
31 2 1 0.000000 12.673749 39.244141 40.332909 # CM POPC
32 2 3 0.000000 11.127295 39.345791 37.447994 # CT2 POPC
33 3 7 0.111803 28.444237 43.447319 56.899025 # NC POPC
34 3 8 -0.111803 26.846394 42.160995 53.779190 # PH POPC
35 3 6 0.000000 26.567753 42.056683 50.712814 # GL POPC
36 3 4 0.000000 28.612059 40.973949 49.079536 # EST1 POPC
37 3 1 0.000000 30.943327 40.413601 46.410034 # CM POPC
38 3 1 0.000000 30.793715 39.194157 42.755081 # CM POPC
39 3 2 0.000000 30.247662 37.408722 40.258091 # CMD2 POPC
40 3 1 0.000000 32.450497 37.207813 38.553879 # CM POPC
41 3 1 0.000000 33.251663 37.617760 34.799286 # CM POPC
42 3 3 0.000000 33.789581 37.523167 31.590399 # CT2 POPC
43 3 5 0.000000 23.255369 40.818359 50.009571 # EST2 POPC
44 3 1 0.000000 22.247019 38.785519 46.983807 # CM POPC
45 3 1 0.000000 21.391174 37.461834 43.862888 # CM POPC
46 3 1 0.000000 21.239628 37.448505 40.235939 # CM POPC
47 3 1 0.000000 20.898539 38.139961 36.982796 # CM POPC
48 3 3 0.000000 21.834352 37.568558 34.193108 # CT2 POPC
49 4 7 0.111803 22.271669 38.948421 55.682648 # NC POPC
50 4 8 -0.111803 18.769655 39.163422 53.917767 # PH POPC
51 4 6 0.000000 18.721270 40.907646 51.014515 # GL POPC
52 4 4 0.000000 15.909907 41.565418 50.992630 # EST1 POPC
53 4 1 0.000000 14.043493 40.995739 47.751808 # CM POPC
54 4 1 0.000000 14.261308 42.462078 44.516613 # CM POPC
55 4 2 0.000000 16.049746 44.441727 43.345509 # CMD2 POPC
56 4 1 0.000000 15.174474 46.399220 41.696754 # CM POPC
57 4 1 0.000000 13.311101 49.005489 43.173622 # CM POPC
58 4 3 0.000000 11.291645 49.765259 45.230556 # CT2 POPC
59 4 5 0.000000 18.634779 41.760303 47.991634 # EST2 POPC
60 4 1 0.000000 18.404236 41.171104 44.201420 # CM POPC
61 4 1 0.000000 17.953995 40.524132 40.669868 # CM POPC
62 4 1 0.000000 15.735381 41.897442 38.231926 # CM POPC
63 4 1 0.000000 13.823002 42.771412 35.637478 # CM POPC
64 4 3 0.000000 12.420084 45.168575 33.897400 # CT2 POPC
65 5 7 0.111803 35.643772 46.325378 55.510468 # NC POPC
66 5 8 -0.111803 32.879776 44.107773 54.238880 # PH POPC
67 5 6 0.000000 32.394245 43.678417 50.733875 # GL POPC
68 5 4 0.000000 34.910442 44.706707 49.803974 # EST1 POPC
69 5 1 0.000000 38.199242 45.364925 48.780979 # CM POPC
70 5 1 0.000000 39.974735 44.775173 45.703335 # CM POPC
71 5 2 0.000000 42.372208 44.839546 44.178349 # CMD2 POPC
72 5 1 0.000000 42.757530 45.494183 41.571850 # CM POPC
73 5 1 0.000000 43.120445 44.510826 38.148327 # CM POPC
74 5 3 0.000000 43.003719 45.255268 34.974892 # CT2 POPC
75 5 5 0.000000 31.313395 45.478195 48.042938 # EST2 POPC
76 5 1 0.000000 32.217503 44.580162 44.717186 # CM POPC
77 5 1 0.000000 30.386002 43.789471 41.393124 # CM POPC
78 5 1 0.000000 27.793081 45.740982 39.917549 # CM POPC
79 5 1 0.000000 25.131386 47.364376 41.475082 # CM POPC
80 5 3 0.000000 23.094667 49.029919 43.388939 # CT2 POPC
81 6 7 0.111803 1.837354 47.517921 56.727287 # NC POPC
82 6 8 -0.111803 5.331270 46.067444 56.963371 # PH POPC
83 6 6 0.000000 4.065105 44.140736 54.184750 # GL POPC
84 6 4 0.000000 6.407304 44.627224 52.612274 # EST1 POPC
85 6 1 0.000000 8.360856 46.106682 49.682384 # CM POPC
86 6 1 0.000000 11.160149 47.056431 48.568256 # CM POPC
87 6 2 0.000000 13.256398 45.756260 47.078003 # CMD2 POPC
88 6 1 0.000000 15.749140 46.739681 47.590206 # CM POPC
89 6 1 0.000000 17.294418 49.381310 45.809875 # CM POPC
90 6 3 0.000000 18.371674 49.740166 43.043831 # CT2 POPC
91 6 5 0.000000 2.606544 43.313419 51.371578 # EST2 POPC
92 6 1 0.000000 4.049081 44.294651 48.061840 # CM POPC
93 6 1 0.000000 5.712109 45.648022 45.306591 # CM POPC
94 6 1 0.000000 7.312539 47.743744 43.617603 # CM POPC
95 6 1 0.000000 5.992638 49.082489 40.245403 # CM POPC
96 6 3 0.000000 4.705404 50.598473 37.671249 # CT2 POPC
97 7 7 0.111803 15.793958 -3.312647 54.536671 # NC POPC
98 7 8 -0.111803 15.354117 0.403056 54.312103 # PH POPC
99 7 6 0.000000 14.400254 2.258766 51.570705 # GL POPC
100 7 4 0.000000 12.677555 4.483418 50.838028 # EST1 POPC
101 7 1 0.000000 11.937274 5.964916 47.800987 # CM POPC
102 7 1 0.000000 12.591905 6.044817 43.996574 # CM POPC
103 7 2 0.000000 14.624221 6.879626 42.269028 # CMD2 POPC
104 7 1 0.000000 16.128574 4.894951 41.047134 # CM POPC
105 7 1 0.000000 15.773424 3.006340 38.044804 # CM POPC
106 7 3 0.000000 14.521978 0.132934 37.079002 # CT2 POPC
107 7 5 0.000000 16.144501 4.356091 49.688320 # EST2 POPC
108 7 1 0.000000 16.648540 7.331983 47.871162 # CM POPC
109 7 1 0.000000 18.378462 8.628500 44.665691 # CM POPC
110 7 1 0.000000 20.451752 9.281520 41.499313 # CM POPC
111 7 1 0.000000 22.137747 10.383924 38.205441 # CM POPC
112 7 3 0.000000 20.840727 10.356917 35.950363 # CT2 POPC
113 8 7 0.111803 24.713892 22.978737 57.743538 # NC POPC
114 8 8 -0.111803 23.121466 21.461502 54.620655 # PH POPC
115 8 6 0.000000 23.682661 23.502962 51.901558 # GL POPC
116 8 4 0.000000 23.735262 22.672440 49.102489 # EST1 POPC
117 8 1 0.000000 24.273279 21.394703 45.551941 # CM POPC
118 8 1 0.000000 25.705385 19.742304 43.197384 # CM POPC
119 8 2 0.000000 27.038586 20.502357 40.998676 # CMD2 POPC
120 8 1 0.000000 26.251928 18.441526 39.215126 # CM POPC
121 8 1 0.000000 26.659149 18.440645 35.914295 # CM POPC
122 8 3 0.000000 27.077400 19.385832 33.115982 # CT2 POPC
123 8 5 0.000000 26.499256 24.520016 50.122639 # EST2 POPC
124 8 1 0.000000 27.569197 24.077499 46.915760 # CM POPC
125 8 1 0.000000 28.094244 24.480473 43.452633 # CM POPC
126 8 1 0.000000 28.534506 24.692898 39.642765 # CM POPC
127 8 1 0.000000 30.128405 26.264719 36.891300 # CM POPC
128 8 3 0.000000 32.558090 28.081028 35.704308 # CT2 POPC
129 9 7 0.111803 27.632513 20.344549 52.194977 # NC POPC
130 9 8 -0.111803 31.346411 19.570135 51.774147 # PH POPC
131 9 6 0.000000 33.408981 20.611284 48.693142 # GL POPC
132 9 4 0.000000 33.243336 23.528244 48.636467 # EST1 POPC
133 9 1 0.000000 32.369537 24.198793 45.500885 # CM POPC
134 9 1 0.000000 33.616905 23.661032 41.895775 # CM POPC
135 9 2 0.000000 33.754177 22.888060 38.837601 # CMD2 POPC
136 9 1 0.000000 34.796921 24.687883 36.979691 # CM POPC
137 9 1 0.000000 36.587246 24.480259 33.934811 # CM POPC
138 9 3 0.000000 36.966198 23.930740 31.017475 # CT2 POPC
139 9 5 0.000000 36.215893 21.677031 47.379986 # EST2 POPC
140 9 1 0.000000 39.578278 22.042984 46.490891 # CM POPC
141 9 1 0.000000 42.495281 20.847223 44.693111 # CM POPC
142 9 1 0.000000 44.520042 21.669195 41.817852 # CM POPC
143 9 1 0.000000 45.200642 24.880314 40.394440 # CM POPC
144 9 3 0.000000 45.266117 27.143070 38.457150 # CT2 POPC
145 10 7 0.111803 34.731571 7.460389 51.275608 # NC POPC
146 10 8 -0.111803 31.829426 9.311409 49.688560 # PH POPC
147 10 6 0.000000 31.220734 10.243194 46.011833 # GL POPC
148 10 4 0.000000 32.084751 7.568967 45.240494 # EST1 POPC
149 10 1 0.000000 32.737587 4.225211 45.464939 # CM POPC
150 10 1 0.000000 35.123398 2.267560 46.101204 # CM POPC
151 10 2 0.000000 36.312111 -0.122593 45.910580 # CMD2 POPC
152 10 1 0.000000 35.972286 -0.365800 42.805801 # CM POPC
153 10 1 0.000000 34.216747 -0.418971 39.364967 # CM POPC
154 10 3 0.000000 31.941299 -1.628192 37.928715 # CT2 POPC
155 10 5 0.000000 31.023628 9.569458 42.755615 # EST2 POPC
156 10 1 0.000000 30.419193 9.352230 39.299641 # CM POPC
157 10 1 0.000000 30.119692 7.885877 36.129833 # CM POPC
158 10 1 0.000000 29.457317 6.548614 32.600994 # CM POPC
159 10 1 0.000000 28.220518 4.975154 29.329155 # CM POPC
160 10 3 0.000000 27.028664 4.240124 26.392330 # CT2 POPC
161 11 7 0.111803 12.895151 40.471703 58.732208 # NC POPC
162 11 8 -0.111803 12.216146 43.610229 56.692379 # PH POPC
163 11 6 0.000000 10.908139 46.842621 55.254517 # GL POPC
164 11 4 0.000000 10.597138 44.554291 53.482933 # EST1 POPC
165 11 1 0.000000 10.145451 42.464157 50.372337 # CM POPC
166 11 1 0.000000 9.358500 41.556187 46.701736 # CM POPC
167 11 2 0.000000 10.533403 42.561657 44.331314 # CMD2 POPC
168 11 1 0.000000 10.290925 42.792797 41.510292 # CM POPC
169 11 1 0.000000 10.165331 45.371334 39.660248 # CM POPC
170 11 3 0.000000 7.976039 46.301037 37.869576 # CT2 POPC
171 11 5 0.000000 9.497107 49.435631 53.203819 # EST2 POPC
172 11 1 0.000000 7.970878 51.018986 50.074116 # CM POPC
173 11 1 0.000000 6.486572 52.863449 47.295391 # CM POPC
174 11 1 0.000000 6.682510 52.274910 44.042850 # CM POPC
175 11 1 0.000000 9.068561 51.733440 41.058041 # CM POPC
176 11 3 0.000000 11.358284 51.041031 38.860664 # CT2 POPC
177 12 7 0.111803 9.620518 3.402581 58.662514 # NC POPC
178 12 8 -0.111803 9.168250 6.391895 56.265884 # PH POPC
179 12 6 0.000000 7.853188 5.838509 52.994350 # GL POPC
180 12 4 0.000000 8.939158 8.237357 51.861874 # EST1 POPC
181 12 1 0.000000 9.571067 10.133556 49.152363 # CM POPC
182 12 1 0.000000 8.308069 9.890226 45.842720 # CM POPC
183 12 2 0.000000 8.505010 10.386931 43.163212 # CMD2 POPC
184 12 1 0.000000 8.946265 8.120028 41.665112 # CM POPC
185 12 1 0.000000 9.309344 7.623534 38.351475 # CM POPC
186 12 3 0.000000 7.705313 7.214194 35.509594 # CT2 POPC
187 12 5 0.000000 4.882257 6.865510 51.554127 # EST2 POPC
188 12 1 0.000000 4.255693 8.653223 48.522865 # CM POPC
189 12 1 0.000000 3.754007 8.458418 44.673996 # CM POPC
190 12 1 0.000000 4.724073 9.280237 41.137924 # CM POPC
191 12 1 0.000000 5.871526 10.884661 38.189312 # CM POPC
192 12 3 0.000000 8.665885 12.176116 37.051163 # CT2 POPC
193 13 7 0.111803 51.262867 10.478725 55.180069 # NC POPC
194 13 8 -0.111803 48.712978 7.791555 56.360710 # PH POPC
195 13 6 0.000000 46.357346 6.305777 54.147099 # GL POPC
196 13 4 0.000000 47.582424 7.740050 51.970306 # EST1 POPC
197 13 1 0.000000 47.165318 9.105285 48.778820 # CM POPC
198 13 1 0.000000 47.584858 9.286671 44.970139 # CM POPC
199 13 2 0.000000 47.075726 9.596272 41.874744 # CMD2 POPC
200 13 1 0.000000 48.216354 11.590532 40.231869 # CM POPC
201 13 1 0.000000 48.600864 12.013299 36.715752 # CM POPC
202 13 3 0.000000 47.202446 12.855251 33.906559 # CT2 POPC
203 13 5 0.000000 43.508915 6.102186 52.396309 # EST2 POPC
204 13 1 0.000000 43.091637 6.614305 49.007523 # CM POPC
205 13 1 0.000000 43.544399 5.329878 45.970589 # CM POPC
206 13 1 0.000000 44.064972 5.639838 42.158184 # CM POPC
207 13 1 0.000000 44.666336 7.408323 39.103790 # CM POPC
208 13 3 0.000000 44.424408 10.028836 37.190414 # CT2 POPC
209 14 7 0.111803 11.241408 20.219173 57.472424 # NC POPC
210 14 8 -0.111803 11.146085 16.651274 55.450169 # PH POPC
211 14 6 0.000000 8.393137 16.267204 52.895737 # GL POPC
212 14 4 0.000000 10.286939 14.876955 51.110306 # EST1 POPC
213 14 1 0.000000 10.609376 14.476028 47.694489 # CM POPC
214 14 1 0.000000 8.998835 14.741957 44.215561 # CM POPC
215 14 2 0.000000 8.225515 14.331191 41.177010 # CMD2 POPC
216 14 1 0.000000 8.743734 16.775290 39.169209 # CM POPC
217 14 1 0.000000 8.953000 19.299875 36.274780 # CM POPC
218 14 3 0.000000 9.679613 21.666801 34.152328 # CT2 POPC
219 14 5 0.000000 6.701438 15.242125 50.067638 # EST2 POPC
220 14 1 0.000000 4.770827 13.728730 47.122070 # CM POPC
221 14 1 0.000000 4.709926 13.032544 43.910301 # CM POPC
222 14 1 0.000000 4.057265 14.380217 40.377594 # CM POPC
223 14 1 0.000000 3.815972 15.548182 37.081863 # CM POPC
224 14 3 0.000000 4.331371 14.352115 34.378929 # CT2 POPC
225 15 7 0.111803 15.513222 6.291643 54.561512 # NC POPC
226 15 8 -0.111803 18.544302 8.073256 52.884014 # PH POPC
227 15 6 0.000000 18.166555 10.734012 50.704994 # GL POPC
228 15 4 0.000000 15.342393 10.914398 51.321339 # EST1 POPC
229 15 1 0.000000 13.664569 11.317812 48.398106 # CM POPC
230 15 1 0.000000 13.136653 11.106077 44.634007 # CM POPC
231 15 2 0.000000 12.654992 11.644709 41.554302 # CMD2 POPC
232 15 1 0.000000 15.290384 10.678857 40.109550 # CM POPC
233 15 1 0.000000 15.725969 8.835289 37.663681 # CM POPC
234 15 3 0.000000 13.642156 6.941865 36.669258 # CT2 POPC
235 15 5 0.000000 17.864601 12.653574 48.060822 # EST2 POPC
236 15 1 0.000000 18.171795 13.578680 44.351452 # CM POPC
237 15 1 0.000000 18.181314 14.069715 40.546154 # CM POPC
238 15 1 0.000000 17.837790 14.446087 37.024521 # CM POPC
239 15 1 0.000000 17.475422 12.652895 33.932106 # CM POPC
240 15 3 0.000000 15.844759 10.669896 33.385120 # CT2 POPC
241 16 7 0.111803 24.805094 11.198237 54.426746 # NC POPC
242 16 8 -0.111803 27.081890 10.015931 51.732086 # PH POPC
243 16 6 0.000000 27.744549 12.038390 48.606571 # GL POPC
244 16 4 0.000000 25.849958 10.082033 47.435085 # EST1 POPC
245 16 1 0.000000 26.366158 9.375106 44.372353 # CM POPC
246 16 1 0.000000 25.465336 7.636717 41.390030 # CM POPC
247 16 2 0.000000 24.702448 6.809212 38.481537 # CMD2 POPC
248 16 1 0.000000 25.972546 8.501431 36.548260 # CM POPC
249 16 1 0.000000 25.233805 8.221785 33.328053 # CM POPC
250 16 3 0.000000 22.735571 8.268878 31.194036 # CT2 POPC
251 16 5 0.000000 28.001343 13.798223 45.500679 # EST2 POPC
252 16 1 0.000000 27.258730 12.889007 41.911957 # CM POPC
253 16 1 0.000000 26.019100 13.239008 38.599400 # CM POPC
254 16 1 0.000000 23.435793 15.150433 36.814156 # CM POPC
255 16 1 0.000000 21.455763 17.584854 34.563129 # CM POPC
256 16 3 0.000000 19.062317 17.304647 33.507954 # CT2 POPC
257 17 7 0.111803 31.734215 -0.129277 52.366882 # NC POPC
258 17 8 -0.111803 35.338829 1.683557 52.496609 # PH POPC
259 17 6 0.000000 38.417957 1.864066 50.565552 # GL POPC
260 17 4 0.000000 38.304050 4.545427 49.558147 # EST1 POPC
261 17 1 0.000000 38.287079 7.071280 47.003654 # CM POPC
262 17 1 0.000000 37.805965 8.730281 43.822803 # CM POPC
263 17 2 0.000000 36.003593 10.164250 42.079006 # CMD2 POPC
264 17 1 0.000000 37.167366 11.400713 39.519897 # CM POPC
265 17 1 0.000000 39.195644 11.454510 36.253220 # CM POPC
266 17 3 0.000000 40.891941 11.944766 33.517311 # CT2 POPC
267 17 5 0.000000 40.176769 1.697266 48.027363 # EST2 POPC
268 17 1 0.000000 40.311184 2.370701 44.636463 # CM POPC
269 17 1 0.000000 39.189217 4.767083 41.834099 # CM POPC
270 17 1 0.000000 39.865627 6.753819 38.917812 # CM POPC
271 17 1 0.000000 41.739433 7.451533 35.606087 # CM POPC
272 17 3 0.000000 42.447220 6.187579 33.020821 # CT2 POPC
273 18 7 0.111803 42.689545 1.471905 58.519714 # NC POPC
274 18 8 -0.111803 44.995796 2.244668 55.510139 # PH POPC
275 18 6 0.000000 46.281250 0.036265 52.926029 # GL POPC
276 18 4 0.000000 47.050480 2.445451 51.427132 # EST1 POPC
277 18 1 0.000000 48.314617 3.954057 48.234974 # CM POPC
278 18 1 0.000000 48.981712 5.288051 45.221043 # CM POPC
279 18 2 0.000000 48.709606 4.662461 42.101219 # CMD2 POPC
280 18 1 0.000000 50.612080 5.241439 40.042870 # CM POPC
281 18 1 0.000000 50.829952 6.099949 36.289131 # CM POPC
282 18 3 0.000000 50.775375 6.190748 33.029396 # CT2 POPC
283 18 5 0.000000 49.358627 -0.564579 51.897701 # EST2 POPC
284 18 1 0.000000 51.850800 0.705735 49.630360 # CM POPC
285 18 1 0.000000 51.016075 1.142851 46.403118 # CM POPC
286 18 1 0.000000 49.679447 -0.275726 43.053173 # CM POPC
287 18 1 0.000000 50.006325 -1.302289 39.864265 # CM POPC
288 18 3 0.000000 47.858723 -2.922172 38.545647 # CT2 POPC
289 19 7 0.111803 21.178511 18.895222 51.383785 # NC POPC
290 19 8 -0.111803 24.525249 16.432022 53.025539 # PH POPC
291 19 6 0.000000 25.596870 15.766030 50.102211 # GL POPC
292 19 4 0.000000 23.613447 15.875993 48.073101 # EST1 POPC
293 19 1 0.000000 21.183399 16.717094 45.830730 # CM POPC
294 19 1 0.000000 20.245270 20.129438 45.519131 # CM POPC
295 19 2 0.000000 19.129211 22.215256 44.149796 # CMD2 POPC
296 19 1 0.000000 21.257711 22.636400 41.926876 # CM POPC
297 19 1 0.000000 23.373993 22.541044 39.100361 # CM POPC
298 19 3 0.000000 25.129284 23.733667 36.990337 # CT2 POPC
299 19 5 0.000000 27.454172 17.756439 48.168327 # EST2 POPC
300 19 1 0.000000 30.420435 18.594477 46.350063 # CM POPC
301 19 1 0.000000 31.799559 19.263088 42.773235 # CM POPC
302 19 1 0.000000 31.749670 18.157801 39.552116 # CM POPC
303 19 1 0.000000 30.819933 20.442566 37.025661 # CM POPC
304 19 3 0.000000 31.022854 22.383547 34.757320 # CT2 POPC
305 20 7 0.111803 8.750919 20.066679 49.980362 # NC POPC
306 20 8 -0.111803 11.176264 21.531445 52.459293 # PH POPC
307 20 6 0.000000 13.257657 21.288628 49.974670 # GL POPC
308 20 4 0.000000 12.731236 22.985765 47.682686 # EST1 POPC
309 20 1 0.000000 12.932739 22.692583 44.374535 # CM POPC
310 20 1 0.000000 15.397712 20.565609 42.876953 # CM POPC
311 20 2 0.000000 16.935356 19.228664 40.848091 # CMD2 POPC
312 20 1 0.000000 20.090296 18.611078 40.542820 # CM POPC
313 20 1 0.000000 22.486601 16.015591 41.076405 # CM POPC
314 20 3 0.000000 22.548269 13.722277 42.969589 # CT2 POPC
315 20 5 0.000000 13.190985 18.709764 47.630798 # EST2 POPC
316 20 1 0.000000 13.441513 16.250462 44.663105 # CM POPC
317 20 1 0.000000 13.303471 16.523973 41.789795 # CM POPC
318 20 1 0.000000 13.434213 15.204201 38.862370 # CM POPC
319 20 1 0.000000 12.436434 16.322939 36.097263 # CM POPC
320 20 3 0.000000 13.253755 18.812508 34.622070 # CT2 POPC
321 21 7 0.111803 35.435135 16.843927 51.574390 # NC POPC
322 21 8 -0.111803 38.219494 18.929916 53.079288 # PH POPC
323 21 6 0.000000 39.482269 18.296192 49.881187 # GL POPC
324 21 4 0.000000 37.995945 17.871840 47.431438 # EST1 POPC
325 21 1 0.000000 36.331547 18.466965 44.466816 # CM POPC
326 21 1 0.000000 37.024063 20.933117 42.582306 # CM POPC
327 21 2 0.000000 37.979179 20.883430 40.095203 # CMD2 POPC
328 21 1 0.000000 39.036591 23.215923 39.046497 # CM POPC
329 21 1 0.000000 41.554504 23.754511 36.548489 # CM POPC
330 21 3 0.000000 41.482468 23.225224 33.624401 # CT2 POPC
331 21 5 0.000000 41.530678 16.828182 47.822376 # EST2 POPC
332 21 1 0.000000 43.166611 15.995989 44.665005 # CM POPC
333 21 1 0.000000 42.254028 17.331333 41.491627 # CM POPC
334 21 1 0.000000 41.039597 18.848183 38.146576 # CM POPC
335 21 1 0.000000 41.768871 19.108829 34.627522 # CM POPC
336 21 3 0.000000 41.216194 19.071901 31.703867 # CT2 POPC
337 22 7 0.111803 32.330673 10.627164 55.779518 # NC POPC
338 22 8 -0.111803 35.137680 13.076797 53.127235 # PH POPC
339 22 6 0.000000 34.926994 11.993629 49.713314 # GL POPC
340 22 4 0.000000 37.786701 11.780232 49.527267 # EST1 POPC
341 22 1 0.000000 39.261490 13.035719 46.794891 # CM POPC
342 22 1 0.000000 38.659565 14.623351 43.332005 # CM POPC
343 22 2 0.000000 36.454018 15.614171 41.732059 # CMD2 POPC
344 22 1 0.000000 36.901627 16.385128 38.771767 # CM POPC
345 22 1 0.000000 37.838062 15.842420 35.092239 # CM POPC
346 22 3 0.000000 39.171707 15.722118 32.124092 # CT2 POPC
347 22 5 0.000000 34.779778 13.179031 46.407059 # EST2 POPC
348 22 1 0.000000 33.231564 13.894998 43.028069 # CM POPC
349 22 1 0.000000 32.506653 13.668229 39.526600 # CM POPC
350 22 1 0.000000 33.462135 12.668581 35.920681 # CM POPC
351 22 1 0.000000 35.867382 11.964863 33.850250 # CM POPC
352 22 3 0.000000 37.564583 9.385301 32.728428 # CT2 POPC
353 23 7 0.111803 42.080914 12.545563 56.570549 # NC POPC
354 23 8 -0.111803 44.911079 13.142661 53.862518 # PH POPC
355 23 6 0.000000 44.313793 15.027887 50.866402 # GL POPC
356 23 4 0.000000 43.673485 12.593277 49.511742 # EST1 POPC
357 23 1 0.000000 42.850994 10.835015 46.662434 # CM POPC
358 23 1 0.000000 42.992115 11.010045 43.081299 # CM POPC
359 23 2 0.000000 41.723152 10.973748 40.674973 # CMD2 POPC
360 23 1 0.000000 41.930054 13.370887 39.569344 # CM POPC
361 23 1 0.000000 43.562431 14.656643 36.653446 # CM POPC
362 23 3 0.000000 43.763725 15.136256 33.439156 # CT2 POPC
363 23 5 0.000000 46.481865 16.731979 48.539948 # EST2 POPC
364 23 1 0.000000 47.420509 18.913645 45.545433 # CM POPC
365 23 1 0.000000 49.462055 20.702389 42.837448 # CM POPC
366 23 1 0.000000 51.071095 20.688805 39.991497 # CM POPC
367 23 1 0.000000 53.719231 21.179962 37.919483 # CM POPC
368 23 3 0.000000 53.693630 23.187405 35.678978 # CT2 POPC
369 24 7 0.111803 2.684156 19.939939 57.777817 # NC POPC
370 24 8 -0.111803 5.787184 17.835882 55.921589 # PH POPC
371 24 6 0.000000 2.852074 16.003906 54.303703 # GL POPC
372 24 4 0.000000 3.372704 16.545517 51.489586 # EST1 POPC
373 24 1 0.000000 2.744346 18.249834 48.365902 # CM POPC
374 24 1 0.000000 4.691392 18.524929 45.855701 # CM POPC
375 24 2 0.000000 7.286749 17.924944 45.340538 # CMD2 POPC
376 24 1 0.000000 9.418917 19.651409 43.668217 # CM POPC
377 24 1 0.000000 9.989062 20.844666 40.596466 # CM POPC
378 24 3 0.000000 10.024987 23.565041 38.766788 # CT2 POPC
379 24 5 0.000000 0.801412 13.735082 52.799278 # EST2 POPC
380 24 1 0.000000 0.455656 13.258000 49.065979 # CM POPC
381 24 1 0.000000 -0.363031 13.757579 45.388367 # CM POPC
382 24 1 0.000000 -0.624853 15.588262 42.032612 # CM POPC
383 24 1 0.000000 -1.173938 17.294472 38.956051 # CM POPC
384 24 3 0.000000 -0.200765 16.982590 35.852432 # CT2 POPC
385 25 7 0.111803 46.118160 39.781326 59.854797 # NC POPC
386 25 8 -0.111803 44.416096 37.543404 56.516132 # PH POPC
387 25 6 0.000000 46.719009 37.014820 53.902126 # GL POPC
388 25 4 0.000000 45.830650 39.247807 52.326073 # EST1 POPC
389 25 1 0.000000 46.051685 39.993973 49.079323 # CM POPC
390 25 1 0.000000 47.818398 39.027843 45.788486 # CM POPC
391 25 2 0.000000 50.002716 37.355358 44.914707 # CMD2 POPC
392 25 1 0.000000 50.454205 36.564350 41.967438 # CM POPC
393 25 1 0.000000 49.566822 34.876431 38.610321 # CM POPC
394 25 3 0.000000 48.661499 32.321651 37.457520 # CT2 POPC
395 25 5 0.000000 46.563992 35.350315 50.985104 # EST2 POPC
396 25 1 0.000000 46.232601 35.119427 47.194618 # CM POPC
397 25 1 0.000000 46.010979 35.122208 43.369595 # CM POPC
398 25 1 0.000000 45.062920 35.828804 39.716095 # CM POPC
399 25 1 0.000000 44.532001 36.274933 35.941284 # CM POPC
400 25 3 0.000000 42.740665 36.883686 33.646576 # CT2 POPC
401 26 7 0.111803 26.825296 31.352970 55.051392 # NC POPC
402 26 8 -0.111803 30.518738 32.255146 54.011818 # PH POPC
403 26 6 0.000000 31.895815 32.539093 50.856770 # GL POPC
404 26 4 0.000000 30.292971 30.726479 49.319046 # EST1 POPC
405 26 1 0.000000 29.014801 29.119871 46.576675 # CM POPC
406 26 1 0.000000 30.015366 28.588617 43.178791 # CM POPC
407 26 2 0.000000 32.319183 27.234331 41.503071 # CMD2 POPC
408 26 1 0.000000 34.695324 28.444168 40.318504 # CM POPC
409 26 1 0.000000 38.318951 27.874716 39.159283 # CM POPC
410 26 3 0.000000 41.213436 27.786173 39.887642 # CT2 POPC
411 26 5 0.000000 34.377819 32.708897 48.697594 # EST2 POPC
412 26 1 0.000000 35.854275 32.483910 45.172455 # CM POPC
413 26 1 0.000000 36.351818 31.925085 41.727341 # CM POPC
414 26 1 0.000000 34.760563 33.021511 38.367035 # CM POPC
415 26 1 0.000000 35.365921 32.705658 34.905128 # CM POPC
416 26 3 0.000000 36.378834 33.659863 32.268192 # CT2 POPC
417 27 7 0.111803 35.786999 27.573206 56.736477 # NC POPC
418 27 8 -0.111803 37.097645 25.470709 53.829941 # PH POPC
419 27 6 0.000000 38.749966 28.638172 52.248337 # GL POPC
420 27 4 0.000000 35.922119 28.995872 51.615746 # EST1 POPC
421 27 1 0.000000 35.093002 28.376390 47.932613 # CM POPC
422 27 1 0.000000 36.463688 26.450529 45.251205 # CM POPC
423 27 2 0.000000 38.232224 25.467642 42.803547 # CMD2 POPC
424 27 1 0.000000 41.099602 25.324701 44.001797 # CM POPC
425 27 1 0.000000 44.295238 25.910843 45.443287 # CM POPC
426 27 3 0.000000 46.919796 23.993010 45.858494 # CT2 POPC
427 27 5 0.000000 39.465000 29.825207 49.384644 # EST2 POPC
428 27 1 0.000000 39.654636 29.749500 45.779709 # CM POPC
429 27 1 0.000000 40.918365 31.360483 42.865356 # CM POPC
430 27 1 0.000000 40.347210 34.663509 40.875179 # CM POPC
431 27 1 0.000000 41.140259 37.900249 40.453201 # CM POPC
432 27 3 0.000000 40.330956 40.908932 39.458412 # CT2 POPC
433 28 7 0.111803 35.627731 39.629635 53.935616 # NC POPC
434 28 8 -0.111803 38.678791 42.449081 52.539986 # PH POPC
435 28 6 0.000000 38.816120 41.307770 49.618145 # GL POPC
436 28 4 0.000000 39.513565 40.305138 47.013771 # EST1 POPC
437 28 1 0.000000 38.004314 40.966457 44.095013 # CM POPC
438 28 1 0.000000 35.023582 41.569168 42.334457 # CM POPC
439 28 2 0.000000 34.005981 41.357635 39.447926 # CMD2 POPC
440 28 1 0.000000 36.316650 43.248684 38.520336 # CM POPC
441 28 1 0.000000 37.311665 44.438198 36.098389 # CM POPC
442 28 3 0.000000 35.897987 46.811035 34.330837 # CT2 POPC
443 28 5 0.000000 36.062691 39.965244 48.272957 # EST2 POPC
444 28 1 0.000000 35.518684 37.366905 46.685501 # CM POPC
445 28 1 0.000000 35.504562 36.795021 43.206020 # CM POPC
446 28 1 0.000000 36.283054 36.636093 39.640011 # CM POPC
447 28 1 0.000000 37.674530 37.759960 36.209599 # CM POPC
448 28 3 0.000000 37.840069 40.137123 34.450089 # CT2 POPC
449 29 7 0.111803 41.019379 33.803642 57.286232 # NC POPC
450 29 8 -0.111803 40.534206 32.895344 53.493244 # PH POPC
451 29 6 0.000000 42.732967 32.401436 50.869701 # GL POPC
452 29 4 0.000000 40.816803 33.887302 49.316029 # EST1 POPC
453 29 1 0.000000 40.060196 34.173370 46.303566 # CM POPC
454 29 1 0.000000 41.549778 37.036877 44.767006 # CM POPC
455 29 2 0.000000 43.696426 39.387539 44.937248 # CMD2 POPC
456 29 1 0.000000 44.555248 40.416302 42.621544 # CM POPC
457 29 1 0.000000 46.866791 40.065121 39.906273 # CM POPC
458 29 3 0.000000 49.391869 40.066769 38.345428 # CT2 POPC
459 29 5 0.000000 44.050789 31.059658 48.201660 # EST2 POPC
460 29 1 0.000000 45.166519 30.559752 44.830002 # CM POPC
461 29 1 0.000000 45.677147 29.561253 41.875957 # CM POPC
462 29 1 0.000000 44.493980 31.534426 38.769558 # CM POPC
463 29 1 0.000000 41.825611 33.056458 36.941349 # CM POPC
464 29 3 0.000000 39.827839 31.917967 35.785046 # CT2 POPC
465 30 7 0.111803 -4.541733 22.804691 53.180786 # NC POPC
466 30 8 -0.111803 -2.242834 25.790852 53.986561 # PH POPC
467 30 6 0.000000 -1.026394 27.546474 51.163307 # GL POPC
468 30 4 0.000000 0.809744 25.346308 50.512497 # EST1 POPC
469 30 1 0.000000 2.566664 24.041195 47.922134 # CM POPC
470 30 1 0.000000 4.668570 22.947586 45.553715 # CM POPC
471 30 2 0.000000 6.136668 22.502117 42.801994 # CMD2 POPC
472 30 1 0.000000 6.898244 24.904821 41.837311 # CM POPC
473 30 1 0.000000 6.479120 28.311207 41.387054 # CM POPC
474 30 3 0.000000 7.138064 31.262796 40.173706 # CT2 POPC
475 30 5 0.000000 -0.207480 28.277037 47.760212 # EST2 POPC
476 30 1 0.000000 1.766308 27.704838 44.862114 # CM POPC
477 30 1 0.000000 1.938788 25.675085 41.580124 # CM POPC
478 30 1 0.000000 1.699040 24.703760 37.884308 # CM POPC
479 30 1 0.000000 0.145661 22.500320 36.018677 # CM POPC
480 30 3 0.000000 -2.276025 20.858179 36.447659 # CT2 POPC
481 31 7 0.111803 9.635572 34.596058 59.170914 # NC POPC
482 31 8 -0.111803 8.509587 32.530209 56.198021 # PH POPC
483 31 6 0.000000 7.689812 34.414795 53.535770 # GL POPC
484 31 4 0.000000 8.500380 33.167885 51.080807 # EST1 POPC
485 31 1 0.000000 10.346957 31.600336 48.369881 # CM POPC
486 31 1 0.000000 13.102622 31.893570 45.663883 # CM POPC
487 31 2 0.000000 14.355058 32.725719 42.970772 # CMD2 POPC
488 31 1 0.000000 12.174838 32.793674 41.286720 # CM POPC
489 31 1 0.000000 9.807372 35.690308 40.215279 # CM POPC
490 31 3 0.000000 7.127989 36.449940 40.711224 # CT2 POPC
491 31 5 0.000000 8.633891 37.281281 51.970966 # EST2 POPC
492 31 1 0.000000 6.782530 36.491455 49.421085 # CM POPC
493 31 1 0.000000 5.757237 33.420494 47.338585 # CM POPC
494 31 1 0.000000 3.544174 32.180832 44.866013 # CM POPC
495 31 1 0.000000 2.880682 30.547489 41.765396 # CM POPC
496 31 3 0.000000 2.221118 28.912584 39.034443 # CT2 POPC
497 32 7 0.111803 17.104431 26.302912 54.331787 # NC POPC
498 32 8 -0.111803 20.491837 25.873528 52.624344 # PH POPC
499 32 6 0.000000 21.766197 28.484219 50.681366 # GL POPC
500 32 4 0.000000 19.411005 28.835438 49.058903 # EST1 POPC
501 32 1 0.000000 19.642237 29.888563 45.870350 # CM POPC
502 32 1 0.000000 21.461798 31.447996 43.263596 # CM POPC